<?xml version='1.0' encoding='utf-8'?>
<tripinfos xmlns:xsi="http://www.w3.org/2001/XMLSchema-instance" xsi:noNamespaceSchemaLocation="http://sumo.dlr.de/xsd/tripinfo_file.xsd">
    <tripinfo id="0" depart="0.00" departLane="main_0" departPos="5.10" departSpeed="0.00" departDelay="0.00" arrival="38.00" arrivalLane="main_0" arrivalPos="800.00" arrivalSpeed="25.59" duration="38.00" routeLength="794.90" waitingTime="0.00" waitingCount="0" stopTime="0.00" timeLoss="6.64" rerouteNo="0" devices="tripinfo_bg.0" vType="DEFAULT_VEHTYPE" speedFactor="0.94" vaporized="" />
    <tripinfo id="1" depart="3.00" departLane="main_0" departPos="5.10" departSpeed="0.00" departDelay="1.50" arrival="39.00" arrivalLane="main_1" arrivalPos="800.00" arrivalSpeed="27.48" duration="36.00" routeLength="794.90" waitingTime="0.00" waitingCount="0" stopTime="0.00" timeLoss="7.15" rerouteNo="0" devices="tripinfo_bg.1" vType="DEFAULT_VEHTYPE" speedFactor="1.01" vaporized="" />
    <tripinfo id="2" depart="6.00" departLane="main_0" departPos="5.10" departSpeed="0.00" departDelay="3.00" arrival="41.00" arrivalLane="main_0" arrivalPos="800.00" arrivalSpeed="30.01" duration="35.00" routeLength="794.90" waitingTime="0.00" waitingCount="0" stopTime="0.00" timeLoss="8.10" rerouteNo="0" devices="tripinfo_bg.2" vType="DEFAULT_VEHTYPE" speedFactor="1.08" vaporized="" />
    <tripinfo id="3" depart="9.00" departLane="main_0" departPos="5.10" departSpeed="0.00" departDelay="4.50" arrival="44.00" arrivalLane="main_0" arrivalPos="800.00" arrivalSpeed="27.59" duration="35.00" routeLength="794.90" waitingTime="0.00" waitingCount="0" stopTime="0.00" timeLoss="7.05" rerouteNo="0" devices="tripinfo_bg.3" vType="DEFAULT_VEHTYPE" speedFactor="1.03" vaporized="" />
    <tripinfo id="5" depart="15.00" departLane="main_0" departPos="5.10" departSpeed="0.00" departDelay="7.50" arrival="50.00" arrivalLane="main_1" arrivalPos="800.00" arrivalSpeed="28.89" duration="35.00" routeLength="794.90" waitingTime="0.00" waitingCount="0" stopTime="0.00" timeLoss="7.23" rerouteNo="0" devices="tripinfo_bg.5" vType="DEFAULT_VEHTYPE" speedFactor="1.05" vaporized="" />
    <tripinfo id="4" depart="12.00" departLane="main_0" departPos="5.10" departSpeed="0.00" departDelay="6.00" arrival="53.00" arrivalLane="main_0" arrivalPos="800.00" arrivalSpeed="22.75" duration="41.00" routeLength="794.90" waitingTime="0.00" waitingCount="0" stopTime="0.00" timeLoss="6.02" rerouteNo="0" devices="tripinfo_bg.4" vType="DEFAULT_VEHTYPE" speedFactor="0.83" vaporized="" />
    <tripinfo id="6" depart="18.00" departLane="main_0" departPos="5.10" departSpeed="0.00" departDelay="9.00" arrival="57.00" arrivalLane="main_0" arrivalPos="800.00" arrivalSpeed="24.17" duration="39.00" routeLength="794.90" waitingTime="0.00" waitingCount="0" stopTime="0.00" timeLoss="6.40" rerouteNo="0" devices="tripinfo_bg.6" vType="DEFAULT_VEHTYPE" speedFactor="0.89" vaporized="" />
    <tripinfo id="7" depart="21.00" departLane="main_0" departPos="5.10" departSpeed="0.00" departDelay="10.50" arrival="59.00" arrivalLane="main_0" arrivalPos="800.00" arrivalSpeed="25.89" duration="38.00" routeLength="794.90" waitingTime="0.00" waitingCount="0" stopTime="0.00" timeLoss="6.86" rerouteNo="0" devices="tripinfo_bg.7" vType="DEFAULT_VEHTYPE" speedFactor="0.94" vaporized="" />
    <tripinfo id="9" depart="27.00" departLane="main_0" departPos="5.10" departSpeed="0.00" departDelay="13.50" arrival="62.00" arrivalLane="main_1" arrivalPos="800.00" arrivalSpeed="29.49" duration="35.00" routeLength="794.90" waitingTime="0.00" waitingCount="0" stopTime="0.00" timeLoss="8.44" rerouteNo="0" devices="tripinfo_bg.9" vType="DEFAULT_VEHTYPE" speedFactor="1.09" vaporized="" />
    <tripinfo id="8" depart="24.00" departLane="main_0" departPos="5.10" departSpeed="0.00" departDelay="12.00" arrival="64.00" arrivalLane="main_0" arrivalPos="800.00" arrivalSpeed="23.53" duration="40.00" routeLength="794.90" waitingTime="0.00" waitingCount="0" stopTime="0.00" timeLoss="6.43" rerouteNo="0" devices="tripinfo_bg.8" vType="DEFAULT_VEHTYPE" speedFactor="0.86" vaporized="" />
    <tripinfo id="10" depart="30.00" departLane="main_0" departPos="5.10" departSpeed="0.00" departDelay="15.00" arrival="66.00" arrivalLane="main_0" arrivalPos="800.00" arrivalSpeed="27.30" duration="36.00" routeLength="794.90" waitingTime="0.00" waitingCount="0" stopTime="0.00" timeLoss="7.99" rerouteNo="0" devices="tripinfo_bg.10" vType="DEFAULT_VEHTYPE" speedFactor="1.03" vaporized="" />
    <tripinfo id="11" depart="33.00" departLane="main_0" departPos="5.10" departSpeed="0.00" departDelay="16.50" arrival="68.00" arrivalLane="main_0" arrivalPos="800.00" arrivalSpeed="28.70" duration="35.00" routeLength="794.90" waitingTime="0.00" waitingCount="0" stopTime="0.00" timeLoss="7.45" rerouteNo="0" devices="tripinfo_bg.11" vType="DEFAULT_VEHTYPE" speedFactor="1.05" vaporized="" />
    <tripinfo id="12" depart="36.00" departLane="main_0" departPos="5.10" departSpeed="0.00" departDelay="18.00" arrival="70.00" arrivalLane="main_1" arrivalPos="800.00" arrivalSpeed="30.22" duration="34.00" routeLength="794.90" waitingTime="0.00" waitingCount="0" stopTime="0.00" timeLoss="7.68" rerouteNo="0" devices="tripinfo_bg.12" vType="DEFAULT_VEHTYPE" speedFactor="1.12" vaporized="" />
    <tripinfo id="AV" depart="39.00" departLane="main_0" departPos="5.10" departSpeed="0.00" departDelay="19.00" arrival="75.00" arrivalLane="main_0" arrivalPos="800.00" arrivalSpeed="29.24" duration="36.00" routeLength="794.90" waitingTime="0.00" waitingCount="0" stopTime="0.00" timeLoss="8.07" rerouteNo="0" devices="tripinfo_AV" vType="DEFAULT_VEHTYPE" speedFactor="1.06" vaporized="" />
    <tripinfo id="13" depart="42.00" departLane="main_0" departPos="5.10" departSpeed="0.00" departDelay="22.50" arrival="79.00" arrivalLane="main_0" arrivalPos="800.00" arrivalSpeed="26.56" duration="37.00" routeLength="794.90" waitingTime="0.00" waitingCount="0" stopTime="0.00" timeLoss="7.59" rerouteNo="0" devices="tripinfo_bg.13" vType="DEFAULT_VEHTYPE" speedFactor="0.99" vaporized="" />
    <tripinfo id="14" depart="45.00" departLane="main_0" departPos="5.10" departSpeed="0.00" departDelay="24.00" arrival="83.00" arrivalLane="main_0" arrivalPos="800.00" arrivalSpeed="24.88" duration="38.00" routeLength="794.90" waitingTime="0.00" waitingCount="0" stopTime="0.00" timeLoss="6.45" rerouteNo="0" devices="tripinfo_bg.14" vType="DEFAULT_VEHTYPE" speedFactor="0.93" vaporized="" />
    <tripinfo id="15" depart="48.00" departLane="main_0" departPos="5.10" departSpeed="0.00" departDelay="25.50" arrival="88.00" arrivalLane="main_0" arrivalPos="800.00" arrivalSpeed="23.98" duration="40.00" routeLength="794.90" waitingTime="0.00" waitingCount="0" stopTime="0.00" timeLoss="6.82" rerouteNo="0" devices="tripinfo_bg.15" vType="DEFAULT_VEHTYPE" speedFactor="0.88" vaporized="" />
    <tripinfo id="16" depart="51.00" departLane="main_0" departPos="5.10" departSpeed="0.00" departDelay="27.00" arrival="90.00" arrivalLane="main_0" arrivalPos="800.00" arrivalSpeed="25.03" duration="39.00" routeLength="794.90" waitingTime="0.00" waitingCount="0" stopTime="0.00" timeLoss="7.68" rerouteNo="0" devices="tripinfo_bg.16" vType="DEFAULT_VEHTYPE" speedFactor="0.94" vaporized="" />
    <tripinfo id="18" depart="57.00" departLane="main_0" departPos="5.10" departSpeed="0.00" departDelay="30.00" arrival="91.00" arrivalLane="main_1" arrivalPos="800.00" arrivalSpeed="31.11" duration="34.00" routeLength="794.90" waitingTime="0.00" waitingCount="0" stopTime="0.00" timeLoss="8.49" rerouteNo="0" devices="tripinfo_bg.18" vType="DEFAULT_VEHTYPE" speedFactor="1.16" vaporized="" />
    <tripinfo id="17" depart="54.00" departLane="main_0" departPos="5.10" departSpeed="0.00" departDelay="28.50" arrival="92.00" arrivalLane="main_0" arrivalPos="800.00" arrivalSpeed="25.74" duration="38.00" routeLength="794.90" waitingTime="0.00" waitingCount="0" stopTime="0.00" timeLoss="6.75" rerouteNo="0" devices="tripinfo_bg.17" vType="DEFAULT_VEHTYPE" speedFactor="0.94" vaporized="" />
    <tripinfo id="19" depart="60.00" departLane="main_0" departPos="5.10" departSpeed="0.00" departDelay="31.50" arrival="97.00" arrivalLane="main_0" arrivalPos="800.00" arrivalSpeed="27.82" duration="37.00" routeLength="794.90" waitingTime="0.00" waitingCount="0" stopTime="0.00" timeLoss="8.24" rerouteNo="0" devices="tripinfo_bg.19" vType="DEFAULT_VEHTYPE" speedFactor="1.02" vaporized="" />
    <tripinfo id="20" depart="63.00" departLane="main_0" departPos="5.10" departSpeed="0.00" departDelay="33.00" arrival="99.00" arrivalLane="main_0" arrivalPos="800.00" arrivalSpeed="27.55" duration="36.00" routeLength="794.90" waitingTime="0.00" waitingCount="0" stopTime="0.00" timeLoss="7.67" rerouteNo="0" devices="tripinfo_bg.20" vType="DEFAULT_VEHTYPE" speedFactor="1.01" vaporized="" />
    <tripinfo id="21" depart="66.00" departLane="main_0" departPos="5.10" departSpeed="0.00" departDelay="34.50" arrival="102.00" arrivalLane="main_0" arrivalPos="800.00" arrivalSpeed="25.91" duration="36.00" routeLength="794.90" waitingTime="0.00" waitingCount="0" stopTime="0.00" timeLoss="6.42" rerouteNo="0" devices="tripinfo_bg.21" vType="DEFAULT_VEHTYPE" speedFactor="0.97" vaporized="" />
    <tripinfo id="22" depart="69.00" departLane="main_0" departPos="5.10" departSpeed="0.00" departDelay="36.00" arrival="109.00" arrivalLane="main_0" arrivalPos="800.00" arrivalSpeed="24.07" duration="40.00" routeLength="794.90" waitingTime="0.00" waitingCount="0" stopTime="0.00" timeLoss="7.13" rerouteNo="0" devices="tripinfo_bg.22" vType="DEFAULT_VEHTYPE" speedFactor="0.89" vaporized="" />
    <tripinfo id="23" depart="72.00" departLane="main_0" departPos="5.10" departSpeed="0.00" departDelay="37.50" arrival="114.00" arrivalLane="main_0" arrivalPos="800.00" arrivalSpeed="22.14" duration="42.00" routeLength="794.90" waitingTime="0.00" waitingCount="0" stopTime="0.00" timeLoss="6.81" rerouteNo="0" devices="tripinfo_bg.23" vType="DEFAULT_VEHTYPE" speedFactor="0.83" vaporized="" />
    <tripinfo id="24" depart="75.00" departLane="main_0" departPos="5.10" departSpeed="0.00" departDelay="39.00" arrival="115.00" arrivalLane="main_1" arrivalPos="800.00" arrivalSpeed="23.74" duration="40.00" routeLength="794.90" waitingTime="0.00" waitingCount="0" stopTime="0.00" timeLoss="7.02" rerouteNo="0" devices="tripinfo_bg.24" vType="DEFAULT_VEHTYPE" speedFactor="0.87" vaporized="" />
    <tripinfo id="25" depart="78.00" departLane="main_0" departPos="5.10" departSpeed="0.00" departDelay="40.50" arrival="117.00" arrivalLane="main_0" arrivalPos="800.00" arrivalSpeed="25.03" duration="39.00" routeLength="794.90" waitingTime="0.00" waitingCount="0" stopTime="0.00" timeLoss="7.03" rerouteNo="0" devices="tripinfo_bg.25" vType="DEFAULT_VEHTYPE" speedFactor="0.92" vaporized="" />
    <tripinfo id="27" depart="84.00" departLane="main_0" departPos="5.10" departSpeed="0.00" departDelay="43.50" arrival="117.00" arrivalLane="main_1" arrivalPos="800.00" arrivalSpeed="31.13" duration="33.00" routeLength="794.90" waitingTime="0.00" waitingCount="0" stopTime="0.00" timeLoss="7.64" rerouteNo="0" devices="tripinfo_bg.27" vType="DEFAULT_VEHTYPE" speedFactor="1.13" vaporized="" />
    <tripinfo id="26" depart="81.00" departLane="main_0" departPos="5.10" departSpeed="0.00" departDelay="42.00" arrival="119.00" arrivalLane="main_0" arrivalPos="800.00" arrivalSpeed="25.87" duration="38.00" routeLength="794.90" waitingTime="0.00" waitingCount="0" stopTime="0.00" timeLoss="7.19" rerouteNo="0" devices="tripinfo_bg.26" vType="DEFAULT_VEHTYPE" speedFactor="0.95" vaporized="" />
    <tripinfo id="29" depart="90.00" departLane="main_0" departPos="5.10" departSpeed="0.00" departDelay="46.50" arrival="124.00" arrivalLane="main_1" arrivalPos="800.00" arrivalSpeed="31.75" duration="34.00" routeLength="794.90" waitingTime="0.00" waitingCount="0" stopTime="0.00" timeLoss="8.80" rerouteNo="0" devices="tripinfo_bg.29" vType="DEFAULT_VEHTYPE" speedFactor="1.18" vaporized="" />
    <tripinfo id="28" depart="87.00" departLane="main_0" departPos="5.10" departSpeed="0.00" departDelay="45.00" arrival="125.00" arrivalLane="main_0" arrivalPos="800.00" arrivalSpeed="25.65" duration="38.00" routeLength="794.90" waitingTime="0.00" waitingCount="0" stopTime="0.00" timeLoss="6.36" rerouteNo="0" devices="tripinfo_bg.28" vType="DEFAULT_VEHTYPE" speedFactor="0.93" vaporized="" />
    <tripinfo id="30" depart="93.00" departLane="main_0" departPos="5.10" departSpeed="0.00" departDelay="48.00" arrival="128.00" arrivalLane="main_0" arrivalPos="800.00" arrivalSpeed="31.28" duration="35.00" routeLength="794.90" waitingTime="0.00" waitingCount="0" stopTime="0.00" timeLoss="9.25" rerouteNo="0" devices="tripinfo_bg.30" vType="DEFAULT_VEHTYPE" speedFactor="1.15" vaporized="" />
    <tripinfo id="31" depart="96.00" departLane="main_0" departPos="5.10" departSpeed="0.00" departDelay="49.50" arrival="132.00" arrivalLane="main_0" arrivalPos="800.00" arrivalSpeed="27.41" duration="36.00" routeLength="794.90" waitingTime="0.00" waitingCount="0" stopTime="0.00" timeLoss="7.34" rerouteNo="0" devices="tripinfo_bg.31" vType="DEFAULT_VEHTYPE" speedFactor="1.01" vaporized="" />
    <tripinfo id="32" depart="99.00" departLane="main_0" departPos="5.10" departSpeed="0.00" departDelay="51.00" arrival="132.00" arrivalLane="main_1" arrivalPos="800.00" arrivalSpeed="32.27" duration="33.00" routeLength="794.90" waitingTime="0.00" waitingCount="0" stopTime="0.00" timeLoss="7.64" rerouteNo="0" devices="tripinfo_bg.32" vType="DEFAULT_VEHTYPE" speedFactor="1.17" vaporized="" />
    <tripinfo id="33" depart="102.00" departLane="main_0" departPos="5.10" departSpeed="0.00" departDelay="52.50" arrival="138.00" arrivalLane="main_0" arrivalPos="800.00" arrivalSpeed="27.31" duration="36.00" routeLength="794.90" waitingTime="0.00" waitingCount="0" stopTime="0.00" timeLoss="6.92" rerouteNo="0" devices="tripinfo_bg.33" vType="DEFAULT_VEHTYPE" speedFactor="0.99" vaporized="" />
    <tripinfo id="34" depart="105.00" departLane="main_0" departPos="5.10" departSpeed="0.00" departDelay="54.00" arrival="141.00" arrivalLane="main_0" arrivalPos="800.00" arrivalSpeed="28.23" duration="36.00" routeLength="794.90" waitingTime="0.00" waitingCount="0" stopTime="0.00" timeLoss="7.11" rerouteNo="0" devices="tripinfo_bg.34" vType="DEFAULT_VEHTYPE" speedFactor="1.02" vaporized="" />
    <tripinfo id="35" depart="108.00" departLane="main_0" departPos="5.10" departSpeed="0.00" departDelay="55.50" arrival="145.00" arrivalLane="main_0" arrivalPos="800.00" arrivalSpeed="26.11" duration="37.00" routeLength="794.90" waitingTime="0.00" waitingCount="0" stopTime="0.00" timeLoss="7.32" rerouteNo="0" devices="tripinfo_bg.35" vType="DEFAULT_VEHTYPE" speedFactor="0.97" vaporized="" />
    <tripinfo id="36" depart="111.00" departLane="main_0" departPos="5.10" departSpeed="0.00" departDelay="57.00" arrival="145.00" arrivalLane="main_1" arrivalPos="800.00" arrivalSpeed="32.58" duration="34.00" routeLength="794.90" waitingTime="0.00" waitingCount="0" stopTime="0.00" timeLoss="8.88" rerouteNo="0" devices="tripinfo_bg.36" vType="DEFAULT_VEHTYPE" speedFactor="1.18" vaporized="" />
    <tripinfo id="37" depart="114.00" departLane="main_0" departPos="5.10" departSpeed="0.00" departDelay="58.50" arrival="148.00" arrivalLane="main_0" arrivalPos="800.00" arrivalSpeed="30.41" duration="34.00" routeLength="794.90" waitingTime="0.00" waitingCount="0" stopTime="0.00" timeLoss="7.80" rerouteNo="0" devices="tripinfo_bg.37" vType="DEFAULT_VEHTYPE" speedFactor="1.10" vaporized="" />
    <tripinfo id="39" depart="120.00" departLane="main_0" departPos="5.10" departSpeed="0.00" departDelay="61.50" arrival="155.00" arrivalLane="main_1" arrivalPos="800.00" arrivalSpeed="28.04" duration="35.00" routeLength="794.90" waitingTime="0.00" waitingCount="0" stopTime="0.00" timeLoss="6.69" rerouteNo="0" devices="tripinfo_bg.39" vType="DEFAULT_VEHTYPE" speedFactor="1.03" vaporized="" />
    <tripinfo id="38" depart="117.00" departLane="main_0" departPos="5.10" departSpeed="0.00" departDelay="60.00" arrival="156.00" arrivalLane="main_0" arrivalPos="800.00" arrivalSpeed="24.96" duration="39.00" routeLength="794.90" waitingTime="0.00" waitingCount="0" stopTime="0.00" timeLoss="6.63" rerouteNo="0" devices="tripinfo_bg.38" vType="DEFAULT_VEHTYPE" speedFactor="0.90" vaporized="" />
    <tripinfo id="40" depart="123.00" departLane="main_0" departPos="5.10" departSpeed="0.00" departDelay="63.00" arrival="160.00" arrivalLane="main_0" arrivalPos="800.00" arrivalSpeed="26.09" duration="37.00" routeLength="794.90" waitingTime="0.00" waitingCount="0" stopTime="0.00" timeLoss="7.00" rerouteNo="0" devices="tripinfo_bg.40" vType="DEFAULT_VEHTYPE" speedFactor="0.96" vaporized="" />
    <tripinfo id="41" depart="126.00" departLane="main_0" departPos="5.10" departSpeed="0.00" departDelay="64.50" arrival="162.00" arrivalLane="main_1" arrivalPos="800.00" arrivalSpeed="29.72" duration="36.00" routeLength="794.90" waitingTime="0.00" waitingCount="0" stopTime="0.00" timeLoss="8.89" rerouteNo="0" devices="tripinfo_bg.41" vType="DEFAULT_VEHTYPE" speedFactor="1.09" vaporized="" />
    <tripinfo id="42" depart="129.00" departLane="main_0" departPos="5.10" departSpeed="0.00" departDelay="66.00" arrival="164.00" arrivalLane="main_0" arrivalPos="800.00" arrivalSpeed="28.07" duration="35.00" routeLength="794.90" waitingTime="0.00" waitingCount="0" stopTime="0.00" timeLoss="7.24" rerouteNo="0" devices="tripinfo_bg.42" vType="DEFAULT_VEHTYPE" speedFactor="1.04" vaporized="" />
    <tripinfo id="43" depart="132.00" departLane="main_0" departPos="5.10" departSpeed="0.00" departDelay="67.50" arrival="167.00" arrivalLane="main_0" arrivalPos="800.00" arrivalSpeed="28.29" duration="35.00" routeLength="794.90" waitingTime="0.00" waitingCount="0" stopTime="0.00" timeLoss="7.53" rerouteNo="0" devices="tripinfo_bg.43" vType="DEFAULT_VEHTYPE" speedFactor="1.04" vaporized="" />
    <tripinfo id="44" depart="135.00" departLane="main_0" departPos="5.10" departSpeed="0.00" departDelay="69.00" arrival="169.00" arrivalLane="main_0" arrivalPos="800.00" arrivalSpeed="29.31" duration="34.00" routeLength="794.90" waitingTime="0.00" waitingCount="0" stopTime="0.00" timeLoss="7.44" rerouteNo="0" devices="tripinfo_bg.44" vType="DEFAULT_VEHTYPE" speedFactor="1.09" vaporized="" />
    <tripinfo id="45" depart="138.00" departLane="main_0" departPos="5.10" departSpeed="0.00" departDelay="70.50" arrival="174.00" arrivalLane="main_0" arrivalPos="800.00" arrivalSpeed="27.37" duration="36.00" routeLength="794.90" waitingTime="0.00" waitingCount="0" stopTime="0.00" timeLoss="6.54" rerouteNo="0" devices="tripinfo_bg.45" vType="DEFAULT_VEHTYPE" speedFactor="1.00" vaporized="" />
    <tripinfo id="46" depart="141.00" departLane="main_0" departPos="5.10" departSpeed="0.00" departDelay="72.00" arrival="180.00" arrivalLane="main_0" arrivalPos="800.00" arrivalSpeed="24.53" duration="39.00" routeLength="794.90" waitingTime="0.00" waitingCount="0" stopTime="0.00" timeLoss="6.68" rerouteNo="0" devices="tripinfo_bg.46" vType="DEFAULT_VEHTYPE" speedFactor="0.90" vaporized="" />
    <tripinfo id="47" depart="144.00" departLane="main_0" departPos="5.10" departSpeed="0.00" departDelay="73.50" arrival="184.00" arrivalLane="main_0" arrivalPos="800.00" arrivalSpeed="23.44" duration="40.00" routeLength="794.90" waitingTime="0.00" waitingCount="0" stopTime="0.00" timeLoss="6.48" rerouteNo="0" devices="tripinfo_bg.47" vType="DEFAULT_VEHTYPE" speedFactor="0.88" vaporized="" />
    <tripinfo id="48" depart="147.00" departLane="main_0" departPos="5.10" departSpeed="0.00" departDelay="75.00" arrival="187.00" arrivalLane="main_0" arrivalPos="800.00" arrivalSpeed="22.87" duration="40.00" routeLength="794.90" waitingTime="0.00" waitingCount="0" stopTime="0.00" timeLoss="6.11" rerouteNo="0" devices="tripinfo_bg.48" vType="DEFAULT_VEHTYPE" speedFactor="0.85" vaporized="" />
    <tripinfo id="50" depart="153.00" departLane="main_0" departPos="5.10" departSpeed="0.00" departDelay="78.00" arrival="187.00" arrivalLane="main_1" arrivalPos="800.00" arrivalSpeed="31.61" duration="34.00" routeLength="794.90" waitingTime="0.00" waitingCount="0" stopTime="0.00" timeLoss="8.56" rerouteNo="0" devices="tripinfo_bg.50" vType="DEFAULT_VEHTYPE" speedFactor="1.17" vaporized="" />
    <tripinfo id="49" depart="150.00" departLane="main_0" departPos="5.10" departSpeed="0.00" departDelay="76.50" arrival="190.00" arrivalLane="main_0" arrivalPos="800.00" arrivalSpeed="23.19" duration="40.00" routeLength="794.90" waitingTime="0.00" waitingCount="0" stopTime="0.00" timeLoss="6.01" rerouteNo="0" devices="tripinfo_bg.49" vType="DEFAULT_VEHTYPE" speedFactor="0.85" vaporized="" />
    <tripinfo id="51" depart="156.00" departLane="main_0" departPos="5.10" departSpeed="0.00" departDelay="79.50" arrival="192.00" arrivalLane="main_1" arrivalPos="800.00" arrivalSpeed="27.72" duration="36.00" routeLength="794.90" waitingTime="0.00" waitingCount="0" stopTime="0.00" timeLoss="7.04" rerouteNo="0" devices="tripinfo_bg.51" vType="DEFAULT_VEHTYPE" speedFactor="1.02" vaporized="" />
    <tripinfo id="52" depart="159.00" departLane="main_0" departPos="5.10" departSpeed="0.00" departDelay="81.00" arrival="194.00" arrivalLane="main_1" arrivalPos="800.00" arrivalSpeed="29.85" duration="35.00" routeLength="794.90" waitingTime="0.00" waitingCount="0" stopTime="0.00" timeLoss="7.96" rerouteNo="0" devices="tripinfo_bg.52" vType="DEFAULT_VEHTYPE" speedFactor="1.10" vaporized="" />
    <tripinfo id="53" depart="162.00" departLane="main_0" departPos="5.10" departSpeed="0.00" departDelay="82.50" arrival="199.00" arrivalLane="main_0" arrivalPos="800.00" arrivalSpeed="26.78" duration="37.00" routeLength="794.90" waitingTime="0.00" waitingCount="0" stopTime="0.00" timeLoss="7.66" rerouteNo="0" devices="tripinfo_bg.53" vType="DEFAULT_VEHTYPE" speedFactor="1.00" vaporized="" />
    <tripinfo id="54" depart="165.00" departLane="main_0" departPos="5.10" departSpeed="0.00" departDelay="84.00" arrival="201.00" arrivalLane="main_0" arrivalPos="800.00" arrivalSpeed="27.08" duration="36.00" routeLength="794.90" waitingTime="0.00" waitingCount="0" stopTime="0.00" timeLoss="6.39" rerouteNo="0" devices="tripinfo_bg.54" vType="DEFAULT_VEHTYPE" speedFactor="1.00" vaporized="" />
    <tripinfo id="56" depart="171.00" departLane="main_0" departPos="5.10" departSpeed="0.00" departDelay="87.00" arrival="205.00" arrivalLane="main_1" arrivalPos="800.00" arrivalSpeed="31.73" duration="34.00" routeLength="794.90" waitingTime="0.00" waitingCount="0" stopTime="0.00" timeLoss="8.32" rerouteNo="0" devices="tripinfo_bg.56" vType="DEFAULT_VEHTYPE" speedFactor="1.14" vaporized="" />
    <tripinfo id="55" depart="168.00" departLane="main_0" departPos="5.10" departSpeed="0.00" departDelay="85.50" arrival="206.00" arrivalLane="main_0" arrivalPos="800.00" arrivalSpeed="24.55" duration="38.00" routeLength="794.90" waitingTime="0.00" waitingCount="0" stopTime="0.00" timeLoss="5.84" rerouteNo="0" devices="tripinfo_bg.55" vType="DEFAULT_VEHTYPE" speedFactor="0.90" vaporized="" />
    <tripinfo id="57" depart="174.00" departLane="main_0" departPos="5.10" departSpeed="0.00" departDelay="88.50" arrival="210.00" arrivalLane="main_0" arrivalPos="800.00" arrivalSpeed="27.83" duration="36.00" routeLength="794.90" waitingTime="0.00" waitingCount="0" stopTime="0.00" timeLoss="7.48" rerouteNo="0" devices="tripinfo_bg.57" vType="DEFAULT_VEHTYPE" speedFactor="1.02" vaporized="" />
    <tripinfo id="58" depart="177.00" departLane="main_0" departPos="5.10" departSpeed="0.00" departDelay="90.00" arrival="214.00" arrivalLane="main_0" arrivalPos="800.00" arrivalSpeed="26.32" duration="37.00" routeLength="794.90" waitingTime="0.00" waitingCount="0" stopTime="0.00" timeLoss="7.19" rerouteNo="0" devices="tripinfo_bg.58" vType="DEFAULT_VEHTYPE" speedFactor="0.97" vaporized="" />
    <tripinfo id="59" depart="180.00" departLane="main_0" departPos="5.10" departSpeed="0.00" departDelay="91.50" arrival="216.00" arrivalLane="main_1" arrivalPos="800.00" arrivalSpeed="29.18" duration="36.00" routeLength="794.90" waitingTime="0.00" waitingCount="0" stopTime="0.00" timeLoss="8.89" rerouteNo="0" devices="tripinfo_bg.59" vType="DEFAULT_VEHTYPE" speedFactor="1.08" vaporized="" />
    <tripinfo id="60" depart="184.00" departLane="main_0" departPos="5.10" departSpeed="0.00" departDelay="94.00" arrival="217.00" arrivalLane="main_0" arrivalPos="800.00" arrivalSpeed="31.05" duration="33.00" routeLength="794.90" waitingTime="0.00" waitingCount="0" stopTime="0.00" timeLoss="7.39" rerouteNo="0" devices="tripinfo_bg.60" vType="DEFAULT_VEHTYPE" speedFactor="1.12" vaporized="" />
    <tripinfo id="61" depart="187.00" departLane="main_0" departPos="5.10" departSpeed="0.00" departDelay="95.50" arrival="223.00" arrivalLane="main_0" arrivalPos="800.00" arrivalSpeed="26.97" duration="36.00" routeLength="794.90" waitingTime="0.00" waitingCount="0" stopTime="0.00" timeLoss="7.19" rerouteNo="0" devices="tripinfo_bg.61" vType="DEFAULT_VEHTYPE" speedFactor="1.02" vaporized="" />
    <tripinfo id="62" depart="190.00" departLane="main_0" departPos="5.10" departSpeed="0.00" departDelay="97.00" arrival="226.00" arrivalLane="main_0" arrivalPos="800.00" arrivalSpeed="26.97" duration="36.00" routeLength="794.90" waitingTime="0.00" waitingCount="0" stopTime="0.00" timeLoss="6.83" rerouteNo="0" devices="tripinfo_bg.62" vType="DEFAULT_VEHTYPE" speedFactor="0.99" vaporized="" />
    <tripinfo id="63" depart="193.00" departLane="main_0" departPos="5.10" departSpeed="0.00" departDelay="98.50" arrival="231.00" arrivalLane="main_0" arrivalPos="800.00" arrivalSpeed="25.87" duration="38.00" routeLength="794.90" waitingTime="0.00" waitingCount="0" stopTime="0.00" timeLoss="7.34" rerouteNo="0" devices="tripinfo_bg.63" vType="DEFAULT_VEHTYPE" speedFactor="0.94" vaporized="" />
    <tripinfo id="64" depart="196.00" departLane="main_0" departPos="5.10" departSpeed="0.00" departDelay="100.00" arrival="235.00" arrivalLane="main_0" arrivalPos="800.00" arrivalSpeed="24.05" duration="39.00" routeLength="794.90" waitingTime="0.00" waitingCount="0" stopTime="0.00" timeLoss="5.88" rerouteNo="0" devices="tripinfo_bg.64" vType="DEFAULT_VEHTYPE" speedFactor="0.88" vaporized="" />
    <tripinfo id="65" depart="199.00" departLane="main_0" departPos="5.10" departSpeed="0.00" departDelay="101.50" arrival="237.00" arrivalLane="main_0" arrivalPos="800.00" arrivalSpeed="24.18" duration="38.00" routeLength="794.90" waitingTime="0.00" waitingCount="0" stopTime="0.00" timeLoss="5.99" rerouteNo="0" devices="tripinfo_bg.65" vType="DEFAULT_VEHTYPE" speedFactor="0.91" vaporized="" />
    <tripinfo id="66" depart="202.00" departLane="main_0" departPos="5.10" departSpeed="0.00" departDelay="103.00" arrival="241.00" arrivalLane="main_0" arrivalPos="800.00" arrivalSpeed="24.28" duration="39.00" routeLength="794.90" waitingTime="0.00" waitingCount="0" stopTime="0.00" timeLoss="7.16" rerouteNo="0" devices="tripinfo_bg.66" vType="DEFAULT_VEHTYPE" speedFactor="0.91" vaporized="" />
    <tripinfo id="67" depart="205.00" departLane="main_0" departPos="5.10" departSpeed="0.00" departDelay="104.50" arrival="241.00" arrivalLane="main_1" arrivalPos="800.00" arrivalSpeed="28.65" duration="36.00" routeLength="794.90" waitingTime="0.00" waitingCount="0" stopTime="0.00" timeLoss="7.60" rerouteNo="0" devices="tripinfo_bg.67" vType="DEFAULT_VEHTYPE" speedFactor="1.04" vaporized="" />
    <tripinfo id="68" depart="208.00" departLane="main_0" departPos="5.10" departSpeed="0.00" departDelay="106.00" arrival="244.00" arrivalLane="main_0" arrivalPos="800.00" arrivalSpeed="27.49" duration="36.00" routeLength="794.90" waitingTime="0.00" waitingCount="0" stopTime="0.00" timeLoss="7.84" rerouteNo="0" devices="tripinfo_bg.68" vType="DEFAULT_VEHTYPE" speedFactor="1.02" vaporized="" />
    <tripinfo id="69" depart="211.00" departLane="main_0" departPos="5.10" departSpeed="0.00" departDelay="107.50" arrival="247.00" arrivalLane="main_0" arrivalPos="800.00" arrivalSpeed="28.15" duration="36.00" routeLength="794.90" waitingTime="0.00" waitingCount="0" stopTime="0.00" timeLoss="7.36" rerouteNo="0" devices="tripinfo_bg.69" vType="DEFAULT_VEHTYPE" speedFactor="1.02" vaporized="" />
    <tripinfo id="70" depart="214.00" departLane="main_0" departPos="5.10" departSpeed="0.00" departDelay="109.00" arrival="251.00" arrivalLane="main_0" arrivalPos="800.00" arrivalSpeed="26.01" duration="37.00" routeLength="794.90" waitingTime="0.00" waitingCount="0" stopTime="0.00" timeLoss="6.95" rerouteNo="0" devices="tripinfo_bg.70" vType="DEFAULT_VEHTYPE" speedFactor="0.97" vaporized="" />
    <tripinfo id="71" depart="217.00" departLane="main_0" departPos="5.10" departSpeed="0.00" departDelay="110.50" arrival="255.00" arrivalLane="main_0" arrivalPos="800.00" arrivalSpeed="25.43" duration="38.00" routeLength="794.90" waitingTime="0.00" waitingCount="0" stopTime="0.00" timeLoss="6.72" rerouteNo="0" devices="tripinfo_bg.71" vType="DEFAULT_VEHTYPE" speedFactor="0.94" vaporized="" />
    <tripinfo id="72" depart="220.00" departLane="main_0" departPos="5.10" departSpeed="0.00" departDelay="112.00" arrival="257.00" arrivalLane="main_0" arrivalPos="800.00" arrivalSpeed="28.27" duration="37.00" routeLength="794.90" waitingTime="0.00" waitingCount="0" stopTime="0.00" timeLoss="9.01" rerouteNo="0" devices="tripinfo_bg.72" vType="DEFAULT_VEHTYPE" speedFactor="1.06" vaporized="" />
    <tripinfo id="73" depart="223.00" departLane="main_0" departPos="5.10" departSpeed="0.00" departDelay="113.50" arrival="260.00" arrivalLane="main_0" arrivalPos="800.00" arrivalSpeed="25.73" duration="37.00" routeLength="794.90" waitingTime="0.00" waitingCount="0" stopTime="0.00" timeLoss="6.88" rerouteNo="0" devices="tripinfo_bg.73" vType="DEFAULT_VEHTYPE" speedFactor="0.96" vaporized="" />